s -t 1.000000000 -Hs 0 -Hd -2 -Ni 0 -Nx 0.00 -Ny 100.00 -Nz 100.00 -Ne -1.000000 -Nl AGT -Nw --- -Ma 0 -Md 0 -Ms 0 -Mt 0 -Is 0.0 -Id 1.0 -It cbr -Il 512 -If 0 -Ii 0 -Iv 32 -Pn cbr -Pi 0 -Pf 0 -Po 0 
r -t 1.000000000 -Hs 0 -Hd -2 -Ni 0 -Nx 0.00 -Ny 100.00 -Nz 100.00 -Ne -1.000000 -Nl RTR -Nw --- -Ma 0 -Md 0 -Ms 0 -Mt 0 -Is 0.0 -Id 1.0 -It cbr -Il 512 -If 0 -Ii 0 -Iv 32 -Pn cbr -Pi 0 -Pf 0 -Po 0 
s -t 1.000000000 -Hs 2 -Hd -2 -Ni 2 -Nx 300.00 -Ny 800.00 -Nz 100.00 -Ne -1.000000 -Nl AGT -Nw --- -Ma 0 -Md 0 -Ms 0 -Mt 0 -Is 2.0 -Id 1.1 -It cbr -Il 512 -If 0 -Ii 1 -Iv 32 -Pn cbr -Pi 0 -Pf 0 -Po 0 
r -t 1.000000000 -Hs 2 -Hd -2 -Ni 2 -Nx 300.00 -Ny 800.00 -Nz 100.00 -Ne -1.000000 -Nl RTR -Nw --- -Ma 0 -Md 0 -Ms 0 -Mt 0 -Is 2.0 -Id 1.1 -It cbr -Il 512 -If 0 -Ii 1 -Iv 32 -Pn cbr -Pi 0 -Pf 0 -Po 0 
s -t 1.000000000 -Hs 0 -Hd -2 -Ni 0 -Nx 0.00 -Ny 100.00 -Nz 100.00 -Ne -1.000000 -Nl RTR -Nw --- -Ma 0 -Md 0 -Ms 0 -Mt 0 -Is 0.255 -Id -1.255 -It AODV -Il 48 -If 0 -Ii 0 -Iv 30 -P aodv -Pt 0x2 -Ph 1 -Pb 1 -Pd 1 -Pds 0 -Ps 0 -Pss 4 -Pc REQUEST 
s -t 1.000000000 -Hs 2 -Hd -2 -Ni 2 -Nx 300.00 -Ny 800.00 -Nz 100.00 -Ne -1.000000 -Nl RTR -Nw --- -Ma 0 -Md 0 -Ms 0 -Mt 0 -Is 2.255 -Id -1.255 -It AODV -Il 48 -If 0 -Ii 0 -Iv 30 -P aodv -Pt 0x2 -Ph 1 -Pb 1 -Pd 1 -Pds 0 -Ps 2 -Pss 4 -Pc REQUEST 
s -t 1.000115000 -Hs 2 -Hd -2 -Ni 2 -Nx 300.00 -Ny 800.00 -Nz 100.00 -Ne -1.000000 -Nl MAC -Nw --- -Ma 0 -Md ffffffff -Ms 2 -Mt 800 -Is 2.255 -Id -1.255 -It AODV -Il 106 -If 0 -Ii 0 -Iv 30 -P aodv -Pt 0x2 -Ph 1 -Pb 1 -Pd 1 -Pds 0 -Ps 2 -Pss 4 -Pc REQUEST 
s -t 1.000535000 -Hs 0 -Hd -2 -Ni 0 -Nx 0.00 -Ny 100.00 -Nz 100.00 -Ne -1.000000 -Nl MAC -Nw --- -Ma 0 -Md ffffffff -Ms 0 -Mt 800 -Is 0.255 -Id -1.255 -It AODV -Il 106 -If 0 -Ii 0 -Iv 30 -P aodv -Pt 0x2 -Ph 1 -Pb 1 -Pd 1 -Pds 0 -Ps 0 -Pss 4 -Pc REQUEST 
r -t 1.000964000 -Hs 3 -Hd -2 -Ni 3 -Nx 0.00 -Ny 800.00 -Nz 100.00 -Ne -1.000000 -Nl MAC -Nw --- -Ma 0 -Md ffffffff -Ms 2 -Mt 800 -Is 2.255 -Id -1.255 -It AODV -Il 48 -If 0 -Ii 0 -Iv 30 -P aodv -Pt 0x2 -Ph 1 -Pb 1 -Pd 1 -Pds 0 -Ps 2 -Pss 4 -Pc REQUEST 
r -t 1.000989000 -Hs 3 -Hd -2 -Ni 3 -Nx 0.00 -Ny 800.00 -Nz 100.00 -Ne -1.000000 -Nl RTR -Nw --- -Ma 0 -Md ffffffff -Ms 2 -Mt 800 -Is 2.255 -Id -1.255 -It AODV -Il 48 -If 0 -Ii 0 -Iv 30 -P aodv -Pt 0x2 -Ph 1 -Pb 1 -Pd 1 -Pds 0 -Ps 2 -Pss 4 -Pc REQUEST 
r -t 1.001384000 -Hs 1 -Hd -2 -Ni 1 -Nx 300.00 -Ny 100.00 -Nz 100.00 -Ne -1.000000 -Nl MAC -Nw --- -Ma 0 -Md ffffffff -Ms 0 -Mt 800 -Is 0.255 -Id -1.255 -It AODV -Il 48 -If 0 -Ii 0 -Iv 30 -P aodv -Pt 0x2 -Ph 1 -Pb 1 -Pd 1 -Pds 0 -Ps 0 -Pss 4 -Pc REQUEST 
r -t 1.001409000 -Hs 1 -Hd -2 -Ni 1 -Nx 300.00 -Ny 100.00 -Nz 100.00 -Ne -1.000000 -Nl RTR -Nw --- -Ma 0 -Md ffffffff -Ms 0 -Mt 800 -Is 0.255 -Id -1.255 -It AODV -Il 48 -If 0 -Ii 0 -Iv 30 -P aodv -Pt 0x2 -Ph 1 -Pb 1 -Pd 1 -Pds 0 -Ps 0 -Pss 4 -Pc REQUEST 
s -t 1.001409000 -Hs 1 -Hd 0 -Ni 1 -Nx 300.00 -Ny 100.00 -Nz 100.00 -Ne -1.000000 -Nl RTR -Nw --- -Ma 0 -Md 0 -Ms 0 -Mt 0 -Is 1.255 -Id 0.255 -It AODV -Il 44 -If 0 -Ii 0 -Iv 30 -P aodv -Pt 0x4 -Ph 1 -Pd 1 -Pds 4 -Pl 10.000000 -Pc REPLY 
s -t 1.001464000 -Hs 1 -Hd -2 -Ni 1 -Nx 300.00 -Ny 100.00 -Nz 100.00 -Ne -1.000000 -Nl MAC -Nw --- -Ma 0 -Md ffffffff -Ms 1 -Mt 806 -P arp -Po REQUEST -Pms 1 -Ps 1 -Pmd 0 -Pd 0 
s -t 1.001870227 -Hs 3 -Hd -2 -Ni 3 -Nx 0.00 -Ny 800.00 -Nz 100.00 -Ne -1.000000 -Nl RTR -Nw --- -Ma 0 -Md ffffffff -Ms 2 -Mt 800 -Is 3.255 -Id -1.255 -It AODV -Il 48 -If 0 -Ii 0 -Iv 29 -P aodv -Pt 0x2 -Ph 2 -Pb 1 -Pd 1 -Pds 0 -Ps 2 -Pss 4 -Pc REQUEST 
s -t 1.002105227 -Hs 3 -Hd -2 -Ni 3 -Nx 0.00 -Ny 800.00 -Nz 100.00 -Ne -1.000000 -Nl MAC -Nw --- -Ma 0 -Md ffffffff -Ms 3 -Mt 800 -Is 3.255 -Id -1.255 -It AODV -Il 106 -If 0 -Ii 0 -Iv 29 -P aodv -Pt 0x2 -Ph 2 -Pb 1 -Pd 1 -Pds 0 -Ps 2 -Pss 4 -Pc REQUEST 
r -t 1.002153000 -Hs 0 -Hd -2 -Ni 0 -Nx 0.00 -Ny 100.00 -Nz 100.00 -Ne -1.000000 -Nl MAC -Nw --- -Ma 0 -Md ffffffff -Ms 1 -Mt 806 -P arp -Po REQUEST -Pms 1 -Ps 1 -Pmd 0 -Pd 0 
s -t 1.002503000 -Hs 0 -Hd -2 -Ni 0 -Nx 0.00 -Ny 100.00 -Nz 100.00 -Ne -1.000000 -Nl MAC -Nw --- -Ma 52e -Md 1 -Ms 0 -Mt 0 
r -t 1.002856000 -Hs 1 -Hd -2 -Ni 1 -Nx 300.00 -Ny 100.00 -Nz 100.00 -Ne -1.000000 -Nl MAC -Nw --- -Ma 52e -Md 1 -Ms 0 -Mt 0 
s -t 1.002866000 -Hs 1 -Hd -2 -Ni 1 -Nx 300.00 -Ny 100.00 -Nz 100.00 -Ne -1.000000 -Nl MAC -Nw --- -Ma 3f4 -Md 0 -Ms 0 -Mt 0 
r -t 1.002954227 -Hs 2 -Hd -2 -Ni 2 -Nx 300.00 -Ny 800.00 -Nz 100.00 -Ne -1.000000 -Nl MAC -Nw --- -Ma 0 -Md ffffffff -Ms 3 -Mt 800 -Is 3.255 -Id -1.255 -It AODV -Il 48 -If 0 -Ii 0 -Iv 29 -P aodv -Pt 0x2 -Ph 2 -Pb 1 -Pd 1 -Pds 0 -Ps 2 -Pss 4 -Pc REQUEST 
r -t 1.002979227 -Hs 2 -Hd -2 -Ni 2 -Nx 300.00 -Ny 800.00 -Nz 100.00 -Ne -1.000000 -Nl RTR -Nw --- -Ma 0 -Md ffffffff -Ms 3 -Mt 800 -Is 3.255 -Id -1.255 -It AODV -Il 48 -If 0 -Ii 0 -Iv 29 -P aodv -Pt 0x2 -Ph 2 -Pb 1 -Pd 1 -Pds 0 -Ps 2 -Pss 4 -Pc REQUEST 
r -t 1.003171000 -Hs 0 -Hd -2 -Ni 0 -Nx 0.00 -Ny 100.00 -Nz 100.00 -Ne -1.000000 -Nl MAC -Nw --- -Ma 3f4 -Md 0 -Ms 0 -Mt 0 
s -t 1.003181000 -Hs 0 -Hd -2 -Ni 0 -Nx 0.00 -Ny 100.00 -Nz 100.00 -Ne -1.000000 -Nl MAC -Nw --- -Ma 13a -Md 1 -Ms 0 -Mt 806 -P arp -Po REPLY -Pms 0 -Ps 0 -Pmd 1 -Pd 1 
r -t 1.003870000 -Hs 1 -Hd -2 -Ni 1 -Nx 300.00 -Ny 100.00 -Nz 100.00 -Ne -1.000000 -Nl MAC -Nw --- -Ma 13a -Md 1 -Ms 0 -Mt 806 -P arp -Po REPLY -Pms 0 -Ps 0 -Pmd 1 -Pd 1 
s -t 1.003880000 -Hs 1 -Hd -2 -Ni 1 -Nx 300.00 -Ny 100.00 -Nz 100.00 -Ne -1.000000 -Nl MAC -Nw --- -Ma 0 -Md 0 -Ms 0 -Mt 0 
r -t 1.004185000 -Hs 0 -Hd -2 -Ni 0 -Nx 0.00 -Ny 100.00 -Nz 100.00 -Ne -1.000000 -Nl MAC -Nw --- -Ma 0 -Md 0 -Ms 0 -Mt 0 
s -t 1.004594000 -Hs 1 -Hd -2 -Ni 1 -Nx 300.00 -Ny 100.00 -Nz 100.00 -Ne -1.000000 -Nl MAC -Nw --- -Ma 5ae -Md 0 -Ms 1 -Mt 0 
r -t 1.004947000 -Hs 0 -Hd -2 -Ni 0 -Nx 0.00 -Ny 100.00 -Nz 100.00 -Ne -1.000000 -Nl MAC -Nw --- -Ma 5ae -Md 0 -Ms 1 -Mt 0 
s -t 1.004957000 -Hs 0 -Hd -2 -Ni 0 -Nx 0.00 -Ny 100.00 -Nz 100.00 -Ne -1.000000 -Nl MAC -Nw --- -Ma 474 -Md 1 -Ms 0 -Mt 0 
r -t 1.005262000 -Hs 1 -Hd -2 -Ni 1 -Nx 300.00 -Ny 100.00 -Nz 100.00 -Ne -1.000000 -Nl MAC -Nw --- -Ma 474 -Md 1 -Ms 0 -Mt 0 
s -t 1.005272000 -Hs 1 -Hd 0 -Ni 1 -Nx 300.00 -Ny 100.00 -Nz 100.00 -Ne -1.000000 -Nl MAC -Nw --- -Ma 13a -Md 0 -Ms 1 -Mt 800 -Is 1.255 -Id 0.255 -It AODV -Il 102 -If 0 -Ii 0 -Iv 30 -P aodv -Pt 0x4 -Ph 1 -Pd 1 -Pds 4 -Pl 10.000000 -Pc REPLY 
r -t 1.006089000 -Hs 0 -Hd 0 -Ni 0 -Nx 0.00 -Ny 100.00 -Nz 100.00 -Ne -1.000000 -Nl MAC -Nw --- -Ma 13a -Md 0 -Ms 1 -Mt 800 -Is 1.255 -Id 0.255 -It AODV -Il 44 -If 0 -Ii 0 -Iv 30 -P aodv -Pt 0x4 -Ph 1 -Pd 1 -Pds 4 -Pl 10.000000 -Pc REPLY 
s -t 1.006099000 -Hs 0 -Hd -2 -Ni 0 -Nx 0.00 -Ny 100.00 -Nz 100.00 -Ne -1.000000 -Nl MAC -Nw --- -Ma 0 -Md 1 -Ms 0 -Mt 0 
r -t 1.006114000 -Hs 0 -Hd 0 -Ni 0 -Nx 0.00 -Ny 100.00 -Nz 100.00 -Ne -1.000000 -Nl RTR -Nw --- -Ma 13a -Md 0 -Ms 1 -Mt 800 -Is 1.255 -Id 0.255 -It AODV -Il 44 -If 0 -Ii 0 -Iv 30 -P aodv -Pt 0x4 -Ph 1 -Pd 1 -Pds 4 -Pl 10.000000 -Pc REPLY 
s -t 1.006114000 -Hs 0 -Hd 1 -Ni 0 -Nx 0.00 -Ny 100.00 -Nz 100.00 -Ne -1.000000 -Nl RTR -Nw --- -Ma 0 -Md 0 -Ms 0 -Mt 0 -Is 0.0 -Id 1.0 -It cbr -Il 532 -If 0 -Ii 0 -Iv 30 -Pn cbr -Pi 0 -Pf 0 -Po 0 
r -t 1.006404000 -Hs 1 -Hd -2 -Ni 1 -Nx 300.00 -Ny 100.00 -Nz 100.00 -Ne -1.000000 -Nl MAC -Nw --- -Ma 0 -Md 1 -Ms 0 -Mt 0 
s -t 1.006693000 -Hs 0 -Hd -2 -Ni 0 -Nx 0.00 -Ny 100.00 -Nz 100.00 -Ne -1.000000 -Nl MAC -Nw --- -Ma 14ee -Md 1 -Ms 0 -Mt 0 
r -t 1.007046000 -Hs 1 -Hd -2 -Ni 1 -Nx 300.00 -Ny 100.00 -Nz 100.00 -Ne -1.000000 -Nl MAC -Nw --- -Ma 14ee -Md 1 -Ms 0 -Mt 0 
s -t 1.007056000 -Hs 1 -Hd -2 -Ni 1 -Nx 300.00 -Ny 100.00 -Nz 100.00 -Ne -1.000000 -Nl MAC -Nw --- -Ma 13b4 -Md 0 -Ms 0 -Mt 0 
r -t 1.007361000 -Hs 0 -Hd -2 -Ni 0 -Nx 0.00 -Ny 100.00 -Nz 100.00 -Ne -1.000000 -Nl MAC -Nw --- -Ma 13b4 -Md 0 -Ms 0 -Mt 0 
s -t 1.007371000 -Hs 0 -Hd 1 -Ni 0 -Nx 0.00 -Ny 100.00 -Nz 100.00 -Ne -1.000000 -Nl MAC -Nw --- -Ma 13a -Md 1 -Ms 0 -Mt 800 -Is 0.0 -Id 1.0 -It cbr -Il 590 -If 0 -Ii 0 -Iv 30 -Pn cbr -Pi 0 -Pf 0 -Po 0 
r -t 1.012092000 -Hs 1 -Hd 1 -Ni 1 -Nx 300.00 -Ny 100.00 -Nz 100.00 -Ne -1.000000 -Nl MAC -Nw --- -Ma 13a -Md 1 -Ms 0 -Mt 800 -Is 0.0 -Id 1.0 -It cbr -Il 532 -If 0 -Ii 0 -Iv 30 -Pn cbr -Pi 0 -Pf 1 -Po 0 
s -t 1.012102000 -Hs 1 -Hd -2 -Ni 1 -Nx 300.00 -Ny 100.00 -Nz 100.00 -Ne -1.000000 -Nl MAC -Nw --- -Ma 0 -Md 0 -Ms 0 -Mt 0 
r -t 1.012117000 -Hs 1 -Hd 1 -Ni 1 -Nx 300.00 -Ny 100.00 -Nz 100.00 -Ne -1.000000 -Nl AGT -Nw --- -Ma 13a -Md 1 -Ms 0 -Mt 800 -Is 0.0 -Id 1.0 -It cbr -Il 532 -If 0 -Ii 0 -Iv 30 -Pn cbr -Pi 0 -Pf 1 -Po 0 
r -t 1.012407000 -Hs 0 -Hd -2 -Ni 0 -Nx 0.00 -Ny 100.00 -Nz 100.00 -Ne -1.000000 -Nl MAC -Nw --- -Ma 0 -Md 0 -Ms 0 -Mt 0 
s -t 1.100000000 -Hs 0 -Hd -2 -Ni 0 -Nx 0.00 -Ny 100.00 -Nz 100.00 -Ne -1.000000 -Nl AGT -Nw --- -Ma 0 -Md 0 -Ms 0 -Mt 0 -Is 0.0 -Id 1.0 -It cbr -Il 512 -If 0 -Ii 2 -Iv 32 -Pn cbr -Pi 1 -Pf 0 -Po 0 
r -t 1.100000000 -Hs 0 -Hd -2 -Ni 0 -Nx 0.00 -Ny 100.00 -Nz 100.00 -Ne -1.000000 -Nl RTR -Nw --- -Ma 0 -Md 0 -Ms 0 -Mt 0 -Is 0.0 -Id 1.0 -It cbr -Il 512 -If 0 -Ii 2 -Iv 32 -Pn cbr -Pi 1 -Pf 0 -Po 0 
s -t 1.100000000 -Hs 2 -Hd -2 -Ni 2 -Nx 300.00 -Ny 800.00 -Nz 100.00 -Ne -1.000000 -Nl AGT -Nw --- -Ma 0 -Md 0 -Ms 0 -Mt 0 -Is 2.0 -Id 1.1 -It cbr -Il 512 -If 0 -Ii 3 -Iv 32 -Pn cbr -Pi 1 -Pf 0 -Po 0 
r -t 1.100000000 -Hs 2 -Hd -2 -Ni 2 -Nx 300.00 -Ny 800.00 -Nz 100.00 -Ne -1.000000 -Nl RTR -Nw --- -Ma 0 -Md 0 -Ms 0 -Mt 0 -Is 2.0 -Id 1.1 -It cbr -Il 512 -If 0 -Ii 3 -Iv 32 -Pn cbr -Pi 1 -Pf 0 -Po 0 
s -t 1.100000000 -Hs 0 -Hd 1 -Ni 0 -Nx 0.00 -Ny 100.00 -Nz 100.00 -Ne -1.000000 -Nl RTR -Nw --- -Ma 0 -Md 0 -Ms 0 -Mt 0 -Is 0.0 -Id 1.0 -It cbr -Il 532 -If 0 -Ii 2 -Iv 30 -Pn cbr -Pi 1 -Pf 0 -Po 0 
s -t 1.100235000 -Hs 0 -Hd -2 -Ni 0 -Nx 0.00 -Ny 100.00 -Nz 100.00 -Ne -1.000000 -Nl MAC -Nw --- -Ma 14ee -Md 1 -Ms 0 -Mt 0 
r -t 1.100588000 -Hs 1 -Hd -2 -Ni 1 -Nx 300.00 -Ny 100.00 -Nz 100.00 -Ne -1.000000 -Nl MAC -Nw --- -Ma 14ee -Md 1 -Ms 0 -Mt 0 
s -t 1.100598000 -Hs 1 -Hd -2 -Ni 1 -Nx 300.00 -Ny 100.00 -Nz 100.00 -Ne -1.000000 -Nl MAC -Nw --- -Ma 13b4 -Md 0 -Ms 0 -Mt 0 
r -t 1.100903000 -Hs 0 -Hd -2 -Ni 0 -Nx 0.00 -Ny 100.00 -Nz 100.00 -Ne -1.000000 -Nl MAC -Nw --- -Ma 13b4 -Md 0 -Ms 0 -Mt 0 
s -t 1.100913000 -Hs 0 -Hd 1 -Ni 0 -Nx 0.00 -Ny 100.00 -Nz 100.00 -Ne -1.000000 -Nl MAC -Nw --- -Ma 13a -Md 1 -Ms 0 -Mt 800 -Is 0.0 -Id 1.0 -It cbr -Il 590 -If 0 -Ii 2 -Iv 30 -Pn cbr -Pi 1 -Pf 0 -Po 0 
r -t 1.105634000 -Hs 1 -Hd 1 -Ni 1 -Nx 300.00 -Ny 100.00 -Nz 100.00 -Ne -1.000000 -Nl MAC -Nw --- -Ma 13a -Md 1 -Ms 0 -Mt 800 -Is 0.0 -Id 1.0 -It cbr -Il 532 -If 0 -Ii 2 -Iv 30 -Pn cbr -Pi 1 -Pf 1 -Po 0 
s -t 1.105644000 -Hs 1 -Hd -2 -Ni 1 -Nx 300.00 -Ny 100.00 -Nz 100.00 -Ne -1.000000 -Nl MAC -Nw --- -Ma 0 -Md 0 -Ms 0 -Mt 0 
r -t 1.105659000 -Hs 1 -Hd 1 -Ni 1 -Nx 300.00 -Ny 100.00 -Nz 100.00 -Ne -1.000000 -Nl AGT -Nw --- -Ma 13a -Md 1 -Ms 0 -Mt 800 -Is 0.0 -Id 1.0 -It cbr -Il 532 -If 0 -Ii 2 -Iv 30 -Pn cbr -Pi 1 -Pf 1 -Po 0 
r -t 1.105949000 -Hs 0 -Hd -2 -Ni 0 -Nx 0.00 -Ny 100.00 -Nz 100.00 -Ne -1.000000 -Nl MAC -Nw --- -Ma 0 -Md 0 -Ms 0 -Mt 0 
s -t 1.200000000 -Hs 0 -Hd -2 -Ni 0 -Nx 0.00 -Ny 100.00 -Nz 100.00 -Ne -1.000000 -Nl AGT -Nw --- -Ma 0 -Md 0 -Ms 0 -Mt 0 -Is 0.0 -Id 1.0 -It cbr -Il 512 -If 0 -Ii 4 -Iv 32 -Pn cbr -Pi 2 -Pf 0 -Po 0 
r -t 1.200000000 -Hs 0 -Hd -2 -Ni 0 -Nx 0.00 -Ny 100.00 -Nz 100.00 -Ne -1.000000 -Nl RTR -Nw --- -Ma 0 -Md 0 -Ms 0 -Mt 0 -Is 0.0 -Id 1.0 -It cbr -Il 512 -If 0 -Ii 4 -Iv 32 -Pn cbr -Pi 2 -Pf 0 -Po 0 
s -t 1.200000000 -Hs 2 -Hd -2 -Ni 2 -Nx 300.00 -Ny 800.00 -Nz 100.00 -Ne -1.000000 -Nl AGT -Nw --- -Ma 0 -Md 0 -Ms 0 -Mt 0 -Is 2.0 -Id 1.1 -It cbr -Il 512 -If 0 -Ii 5 -Iv 32 -Pn cbr -Pi 2 -Pf 0 -Po 0 
r -t 1.200000000 -Hs 2 -Hd -2 -Ni 2 -Nx 300.00 -Ny 800.00 -Nz 100.00 -Ne -1.000000 -Nl RTR -Nw --- -Ma 0 -Md 0 -Ms 0 -Mt 0 -Is 2.0 -Id 1.1 -It cbr -Il 512 -If 0 -Ii 5 -Iv 32 -Pn cbr -Pi 2 -Pf 0 -Po 0 
s -t 1.200000000 -Hs 0 -Hd 1 -Ni 0 -Nx 0.00 -Ny 100.00 -Nz 100.00 -Ne -1.000000 -Nl RTR -Nw --- -Ma 0 -Md 0 -Ms 0 -Mt 0 -Is 0.0 -Id 1.0 -It cbr -Il 532 -If 0 -Ii 4 -Iv 30 -Pn cbr -Pi 2 -Pf 0 -Po 0 
s -t 1.200315000 -Hs 0 -Hd -2 -Ni 0 -Nx 0.00 -Ny 100.00 -Nz 100.00 -Ne -1.000000 -Nl MAC -Nw --- -Ma 14ee -Md 1 -Ms 0 -Mt 0 
r -t 1.200668000 -Hs 1 -Hd -2 -Ni 1 -Nx 300.00 -Ny 100.00 -Nz 100.00 -Ne -1.000000 -Nl MAC -Nw --- -Ma 14ee -Md 1 -Ms 0 -Mt 0 
s -t 1.200678000 -Hs 1 -Hd -2 -Ni 1 -Nx 300.00 -Ny 100.00 -Nz 100.00 -Ne -1.000000 -Nl MAC -Nw --- -Ma 13b4 -Md 0 -Ms 0 -Mt 0 
r -t 1.200983000 -Hs 0 -Hd -2 -Ni 0 -Nx 0.00 -Ny 100.00 -Nz 100.00 -Ne -1.000000 -Nl MAC -Nw --- -Ma 13b4 -Md 0 -Ms 0 -Mt 0 
s -t 1.200993000 -Hs 0 -Hd 1 -Ni 0 -Nx 0.00 -Ny 100.00 -Nz 100.00 -Ne -1.000000 -Nl MAC -Nw --- -Ma 13a -Md 1 -Ms 0 -Mt 800 -Is 0.0 -Id 1.0 -It cbr -Il 590 -If 0 -Ii 4 -Iv 30 -Pn cbr -Pi 2 -Pf 0 -Po 0 
r -t 1.205714000 -Hs 1 -Hd 1 -Ni 1 -Nx 300.00 -Ny 100.00 -Nz 100.00 -Ne -1.000000 -Nl MAC -Nw --- -Ma 13a -Md 1 -Ms 0 -Mt 800 -Is 0.0 -Id 1.0 -It cbr -Il 532 -If 0 -Ii 4 -Iv 30 -Pn cbr -Pi 2 -Pf 1 -Po 0 
s -t 1.205724000 -Hs 1 -Hd -2 -Ni 1 -Nx 300.00 -Ny 100.00 -Nz 100.00 -Ne -1.000000 -Nl MAC -Nw --- -Ma 0 -Md 0 -Ms 0 -Mt 0 
r -t 1.205739000 -Hs 1 -Hd 1 -Ni 1 -Nx 300.00 -Ny 100.00 -Nz 100.00 -Ne -1.000000 -Nl AGT -Nw --- -Ma 13a -Md 1 -Ms 0 -Mt 800 -Is 0.0 -Id 1.0 -It cbr -Il 532 -If 0 -Ii 4 -Iv 30 -Pn cbr -Pi 2 -Pf 1 -Po 0 
r -t 1.206029000 -Hs 0 -Hd -2 -Ni 0 -Nx 0.00 -Ny 100.00 -Nz 100.00 -Ne -1.000000 -Nl MAC -Nw --- -Ma 0 -Md 0 -Ms 0 -Mt 0 
s -t 1.300000000 -Hs 0 -Hd -2 -Ni 0 -Nx 0.00 -Ny 100.00 -Nz 100.00 -Ne -1.000000 -Nl AGT -Nw --- -Ma 0 -Md 0 -Ms 0 -Mt 0 -Is 0.0 -Id 1.0 -It cbr -Il 512 -If 0 -Ii 6 -Iv 32 -Pn cbr -Pi 3 -Pf 0 -Po 0 
r -t 1.300000000 -Hs 0 -Hd -2 -Ni 0 -Nx 0.00 -Ny 100.00 -Nz 100.00 -Ne -1.000000 -Nl RTR -Nw --- -Ma 0 -Md 0 -Ms 0 -Mt 0 -Is 0.0 -Id 1.0 -It cbr -Il 512 -If 0 -Ii 6 -Iv 32 -Pn cbr -Pi 3 -Pf 0 -Po 0 
s -t 1.300000000 -Hs 2 -Hd -2 -Ni 2 -Nx 300.00 -Ny 800.00 -Nz 100.00 -Ne -1.000000 -Nl AGT -Nw --- -Ma 0 -Md 0 -Ms 0 -Mt 0 -Is 2.0 -Id 1.1 -It cbr -Il 512 -If 0 -Ii 7 -Iv 32 -Pn cbr -Pi 3 -Pf 0 -Po 0 
r -t 1.300000000 -Hs 2 -Hd -2 -Ni 2 -Nx 300.00 -Ny 800.00 -Nz 100.00 -Ne -1.000000 -Nl RTR -Nw --- -Ma 0 -Md 0 -Ms 0 -Mt 0 -Is 2.0 -Id 1.1 -It cbr -Il 512 -If 0 -Ii 7 -Iv 32 -Pn cbr -Pi 3 -Pf 0 -Po 0 
s -t 1.300000000 -Hs 0 -Hd 1 -Ni 0 -Nx 0.00 -Ny 100.00 -Nz 100.00 -Ne -1.000000 -Nl RTR -Nw --- -Ma 0 -Md 0 -Ms 0 -Mt 0 -Is 0.0 -Id 1.0 -It cbr -Il 532 -If 0 -Ii 6 -Iv 30 -Pn cbr -Pi 3 -Pf 0 -Po 0 
s -t 1.300555000 -Hs 0 -Hd -2 -Ni 0 -Nx 0.00 -Ny 100.00 -Nz 100.00 -Ne -1.000000 -Nl MAC -Nw --- -Ma 14ee -Md 1 -Ms 0 -Mt 0 
r -t 1.300908000 -Hs 1 -Hd -2 -Ni 1 -Nx 300.00 -Ny 100.00 -Nz 100.00 -Ne -1.000000 -Nl MAC -Nw --- -Ma 14ee -Md 1 -Ms 0 -Mt 0 
s -t 1.300918000 -Hs 1 -Hd -2 -Ni 1 -Nx 300.00 -Ny 100.00 -Nz 100.00 -Ne -1.000000 -Nl MAC -Nw --- -Ma 13b4 -Md 0 -Ms 0 -Mt 0 
r -t 1.301223000 -Hs 0 -Hd -2 -Ni 0 -Nx 0.00 -Ny 100.00 -Nz 100.00 -Ne -1.000000 -Nl MAC -Nw --- -Ma 13b4 -Md 0 -Ms 0 -Mt 0 
s -t 1.301233000 -Hs 0 -Hd 1 -Ni 0 -Nx 0.00 -Ny 100.00 -Nz 100.00 -Ne -1.000000 -Nl MAC -Nw --- -Ma 13a -Md 1 -Ms 0 -Mt 800 -Is 0.0 -Id 1.0 -It cbr -Il 590 -If 0 -Ii 6 -Iv 30 -Pn cbr -Pi 3 -Pf 0 -Po 0 
r -t 1.305954000 -Hs 1 -Hd 1 -Ni 1 -Nx 300.00 -Ny 100.00 -Nz 100.00 -Ne -1.000000 -Nl MAC -Nw --- -Ma 13a -Md 1 -Ms 0 -Mt 800 -Is 0.0 -Id 1.0 -It cbr -Il 532 -If 0 -Ii 6 -Iv 30 -Pn cbr -Pi 3 -Pf 1 -Po 0 
s -t 1.305964000 -Hs 1 -Hd -2 -Ni 1 -Nx 300.00 -Ny 100.00 -Nz 100.00 -Ne -1.000000 -Nl MAC -Nw --- -Ma 0 -Md 0 -Ms 0 -Mt 0 
r -t 1.305979000 -Hs 1 -Hd 1 -Ni 1 -Nx 300.00 -Ny 100.00 -Nz 100.00 -Ne -1.000000 -Nl AGT -Nw --- -Ma 13a -Md 1 -Ms 0 -Mt 800 -Is 0.0 -Id 1.0 -It cbr -Il 532 -If 0 -Ii 6 -Iv 30 -Pn cbr -Pi 3 -Pf 1 -Po 0 
r -t 1.306269000 -Hs 0 -Hd -2 -Ni 0 -Nx 0.00 -Ny 100.00 -Nz 100.00 -Ne -1.000000 -Nl MAC -Nw --- -Ma 0 -Md 0 -Ms 0 -Mt 0 
s -t 1.400000000 -Hs 0 -Hd -2 -Ni 0 -Nx 0.00 -Ny 100.00 -Nz 100.00 -Ne -1.000000 -Nl AGT -Nw --- -Ma 0 -Md 0 -Ms 0 -Mt 0 -Is 0.0 -Id 1.0 -It cbr -Il 512 -If 0 -Ii 8 -Iv 32 -Pn cbr -Pi 4 -Pf 0 -Po 0 
r -t 1.400000000 -Hs 0 -Hd -2 -Ni 0 -Nx 0.00 -Ny 100.00 -Nz 100.00 -Ne -1.000000 -Nl RTR -Nw --- -Ma 0 -Md 0 -Ms 0 -Mt 0 -Is 0.0 -Id 1.0 -It cbr -Il 512 -If 0 -Ii 8 -Iv 32 -Pn cbr -Pi 4 -Pf 0 -Po 0 
s -t 1.400000000 -Hs 2 -Hd -2 -Ni 2 -Nx 300.00 -Ny 800.00 -Nz 100.00 -Ne -1.000000 -Nl AGT -Nw --- -Ma 0 -Md 0 -Ms 0 -Mt 0 -Is 2.0 -Id 1.1 -It cbr -Il 512 -If 0 -Ii 9 -Iv 32 -Pn cbr -Pi 4 -Pf 0 -Po 0 
r -t 1.400000000 -Hs 2 -Hd -2 -Ni 2 -Nx 300.00 -Ny 800.00 -Nz 100.00 -Ne -1.000000 -Nl RTR -Nw --- -Ma 0 -Md 0 -Ms 0 -Mt 0 -Is 2.0 -Id 1.1 -It cbr -Il 512 -If 0 -Ii 9 -Iv 32 -Pn cbr -Pi 4 -Pf 0 -Po 0 
s -t 1.400000000 -Hs 0 -Hd 1 -Ni 0 -Nx 0.00 -Ny 100.00 -Nz 100.00 -Ne -1.000000 -Nl RTR -Nw --- -Ma 0 -Md 0 -Ms 0 -Mt 0 -Is 0.0 -Id 1.0 -It cbr -Il 532 -If 0 -Ii 8 -Iv 30 -Pn cbr -Pi 4 -Pf 0 -Po 0 
s -t 1.400395000 -Hs 0 -Hd -2 -Ni 0 -Nx 0.00 -Ny 100.00 -Nz 100.00 -Ne -1.000000 -Nl MAC -Nw --- -Ma 14ee -Md 1 -Ms 0 -Mt 0 
r -t 1.400748000 -Hs 1 -Hd -2 -Ni 1 -Nx 300.00 -Ny 100.00 -Nz 100.00 -Ne -1.000000 -Nl MAC -Nw --- -Ma 14ee -Md 1 -Ms 0 -Mt 0 
s -t 1.400758000 -Hs 1 -Hd -2 -Ni 1 -Nx 300.00 -Ny 100.00 -Nz 100.00 -Ne -1.000000 -Nl MAC -Nw --- -Ma 13b4 -Md 0 -Ms 0 -Mt 0 
r -t 1.401063000 -Hs 0 -Hd -2 -Ni 0 -Nx 0.00 -Ny 100.00 -Nz 100.00 -Ne -1.000000 -Nl MAC -Nw --- -Ma 13b4 -Md 0 -Ms 0 -Mt 0 
s -t 1.401073000 -Hs 0 -Hd 1 -Ni 0 -Nx 0.00 -Ny 100.00 -Nz 100.00 -Ne -1.000000 -Nl MAC -Nw --- -Ma 13a -Md 1 -Ms 0 -Mt 800 -Is 0.0 -Id 1.0 -It cbr -Il 590 -If 0 -Ii 8 -Iv 30 -Pn cbr -Pi 4 -Pf 0 -Po 0 
r -t 1.405794000 -Hs 1 -Hd 1 -Ni 1 -Nx 300.00 -Ny 100.00 -Nz 100.00 -Ne -1.000000 -Nl MAC -Nw --- -Ma 13a -Md 1 -Ms 0 -Mt 800 -Is 0.0 -Id 1.0 -It cbr -Il 532 -If 0 -Ii 8 -Iv 30 -Pn cbr -Pi 4 -Pf 1 -Po 0 
s -t 1.405804000 -Hs 1 -Hd -2 -Ni 1 -Nx 300.00 -Ny 100.00 -Nz 100.00 -Ne -1.000000 -Nl MAC -Nw --- -Ma 0 -Md 0 -Ms 0 -Mt 0 
r -t 1.405819000 -Hs 1 -Hd 1 -Ni 1 -Nx 300.00 -Ny 100.00 -Nz 100.00 -Ne -1.000000 -Nl AGT -Nw --- -Ma 13a -Md 1 -Ms 0 -Mt 800 -Is 0.0 -Id 1.0 -It cbr -Il 532 -If 0 -Ii 8 -Iv 30 -Pn cbr -Pi 4 -Pf 1 -Po 0 
r -t 1.406109000 -Hs 0 -Hd -2 -Ni 0 -Nx 0.00 -Ny 100.00 -Nz 100.00 -Ne -1.000000 -Nl MAC -Nw --- -Ma 0 -Md 0 -Ms 0 -Mt 0 
s -t 1.500000000 -Hs 0 -Hd -2 -Ni 0 -Nx 0.00 -Ny 100.00 -Nz 100.00 -Ne -1.000000 -Nl AGT -Nw --- -Ma 0 -Md 0 -Ms 0 -Mt 0 -Is 0.0 -Id 1.0 -It cbr -Il 512 -If 0 -Ii 10 -Iv 32 -Pn cbr -Pi 5 -Pf 0 -Po 0 
r -t 1.500000000 -Hs 0 -Hd -2 -Ni 0 -Nx 0.00 -Ny 100.00 -Nz 100.00 -Ne -1.000000 -Nl RTR -Nw --- -Ma 0 -Md 0 -Ms 0 -Mt 0 -Is 0.0 -Id 1.0 -It cbr -Il 512 -If 0 -Ii 10 -Iv 32 -Pn cbr -Pi 5 -Pf 0 -Po 0 
s -t 1.500000000 -Hs 2 -Hd -2 -Ni 2 -Nx 300.00 -Ny 800.00 -Nz 100.00 -Ne -1.000000 -Nl AGT -Nw --- -Ma 0 -Md 0 -Ms 0 -Mt 0 -Is 2.0 -Id 1.1 -It cbr -Il 512 -If 0 -Ii 11 -Iv 32 -Pn cbr -Pi 5 -Pf 0 -Po 0 
r -t 1.500000000 -Hs 2 -Hd -2 -Ni 2 -Nx 300.00 -Ny 800.00 -Nz 100.00 -Ne -1.000000 -Nl RTR -Nw --- -Ma 0 -Md 0 -Ms 0 -Mt 0 -Is 2.0 -Id 1.1 -It cbr -Il 512 -If 0 -Ii 11 -Iv 32 -Pn cbr -Pi 5 -Pf 0 -Po 0 
s -t 1.500000000 -Hs 0 -Hd 1 -Ni 0 -Nx 0.00 -Ny 100.00 -Nz 100.00 -Ne -1.000000 -Nl RTR -Nw --- -Ma 0 -Md 0 -Ms 0 -Mt 0 -Is 0.0 -Id 1.0 -It cbr -Il 532 -If 0 -Ii 10 -Iv 30 -Pn cbr -Pi 5 -Pf 0 -Po 0 
s -t 1.500295000 -Hs 0 -Hd -2 -Ni 0 -Nx 0.00 -Ny 100.00 -Nz 100.00 -Ne -1.000000 -Nl MAC -Nw --- -Ma 14ee -Md 1 -Ms 0 -Mt 0 
r -t 1.500648000 -Hs 1 -Hd -2 -Ni 1 -Nx 300.00 -Ny 100.00 -Nz 100.00 -Ne -1.000000 -Nl MAC -Nw --- -Ma 14ee -Md 1 -Ms 0 -Mt 0 
s -t 1.500658000 -Hs 1 -Hd -2 -Ni 1 -Nx 300.00 -Ny 100.00 -Nz 100.00 -Ne -1.000000 -Nl MAC -Nw --- -Ma 13b4 -Md 0 -Ms 0 -Mt 0 
r -t 1.500963000 -Hs 0 -Hd -2 -Ni 0 -Nx 0.00 -Ny 100.00 -Nz 100.00 -Ne -1.000000 -Nl MAC -Nw --- -Ma 13b4 -Md 0 -Ms 0 -Mt 0 
s -t 1.500973000 -Hs 0 -Hd 1 -Ni 0 -Nx 0.00 -Ny 100.00 -Nz 100.00 -Ne -1.000000 -Nl MAC -Nw --- -Ma 13a -Md 1 -Ms 0 -Mt 800 -Is 0.0 -Id 1.0 -It cbr -Il 590 -If 0 -Ii 10 -Iv 30 -Pn cbr -Pi 5 -Pf 0 -Po 0 
r -t 1.505694000 -Hs 1 -Hd 1 -Ni 1 -Nx 300.00 -Ny 100.00 -Nz 100.00 -Ne -1.000000 -Nl MAC -Nw --- -Ma 13a -Md 1 -Ms 0 -Mt 800 -Is 0.0 -Id 1.0 -It cbr -Il 532 -If 0 -Ii 10 -Iv 30 -Pn cbr -Pi 5 -Pf 1 -Po 0 
s -t 1.505704000 -Hs 1 -Hd -2 -Ni 1 -Nx 300.00 -Ny 100.00 -Nz 100.00 -Ne -1.000000 -Nl MAC -Nw --- -Ma 0 -Md 0 -Ms 0 -Mt 0 
r -t 1.505719000 -Hs 1 -Hd 1 -Ni 1 -Nx 300.00 -Ny 100.00 -Nz 100.00 -Ne -1.000000 -Nl AGT -Nw --- -Ma 13a -Md 1 -Ms 0 -Mt 800 -Is 0.0 -Id 1.0 -It cbr -Il 532 -If 0 -Ii 10 -Iv 30 -Pn cbr -Pi 5 -Pf 1 -Po 0 
r -t 1.506009000 -Hs 0 -Hd -2 -Ni 0 -Nx 0.00 -Ny 100.00 -Nz 100.00 -Ne -1.000000 -Nl MAC -Nw --- -Ma 0 -Md 0 -Ms 0 -Mt 0 
s -t 1.600000000 -Hs 0 -Hd -2 -Ni 0 -Nx 0.00 -Ny 100.00 -Nz 100.00 -Ne -1.000000 -Nl AGT -Nw --- -Ma 0 -Md 0 -Ms 0 -Mt 0 -Is 0.0 -Id 1.0 -It cbr -Il 512 -If 0 -Ii 12 -Iv 32 -Pn cbr -Pi 6 -Pf 0 -Po 0 
r -t 1.600000000 -Hs 0 -Hd -2 -Ni 0 -Nx 0.00 -Ny 100.00 -Nz 100.00 -Ne -1.000000 -Nl RTR -Nw --- -Ma 0 -Md 0 -Ms 0 -Mt 0 -Is 0.0 -Id 1.0 -It cbr -Il 512 -If 0 -Ii 12 -Iv 32 -Pn cbr -Pi 6 -Pf 0 -Po 0 
s -t 1.600000000 -Hs 2 -Hd -2 -Ni 2 -Nx 300.00 -Ny 800.00 -Nz 100.00 -Ne -1.000000 -Nl AGT -Nw --- -Ma 0 -Md 0 -Ms 0 -Mt 0 -Is 2.0 -Id 1.1 -It cbr -Il 512 -If 0 -Ii 13 -Iv 32 -Pn cbr -Pi 6 -Pf 0 -Po 0 
r -t 1.600000000 -Hs 2 -Hd -2 -Ni 2 -Nx 300.00 -Ny 800.00 -Nz 100.00 -Ne -1.000000 -Nl RTR -Nw --- -Ma 0 -Md 0 -Ms 0 -Mt 0 -Is 2.0 -Id 1.1 -It cbr -Il 512 -If 0 -Ii 13 -Iv 32 -Pn cbr -Pi 6 -Pf 0 -Po 0 
s -t 1.600000000 -Hs 0 -Hd 1 -Ni 0 -Nx 0.00 -Ny 100.00 -Nz 100.00 -Ne -1.000000 -Nl RTR -Nw --- -Ma 0 -Md 0 -Ms 0 -Mt 0 -Is 0.0 -Id 1.0 -It cbr -Il 532 -If 0 -Ii 12 -Iv 30 -Pn cbr -Pi 6 -Pf 0 -Po 0 
s -t 1.600315000 -Hs 0 -Hd -2 -Ni 0 -Nx 0.00 -Ny 100.00 -Nz 100.00 -Ne -1.000000 -Nl MAC -Nw --- -Ma 14ee -Md 1 -Ms 0 -Mt 0 
r -t 1.600668000 -Hs 1 -Hd -2 -Ni 1 -Nx 300.00 -Ny 100.00 -Nz 100.00 -Ne -1.000000 -Nl MAC -Nw --- -Ma 14ee -Md 1 -Ms 0 -Mt 0 
s -t 1.600678000 -Hs 1 -Hd -2 -Ni 1 -Nx 300.00 -Ny 100.00 -Nz 100.00 -Ne -1.000000 -Nl MAC -Nw --- -Ma 13b4 -Md 0 -Ms 0 -Mt 0 
r -t 1.600983000 -Hs 0 -Hd -2 -Ni 0 -Nx 0.00 -Ny 100.00 -Nz 100.00 -Ne -1.000000 -Nl MAC -Nw --- -Ma 13b4 -Md 0 -Ms 0 -Mt 0 
s -t 1.600993000 -Hs 0 -Hd 1 -Ni 0 -Nx 0.00 -Ny 100.00 -Nz 100.00 -Ne -1.000000 -Nl MAC -Nw --- -Ma 13a -Md 1 -Ms 0 -Mt 800 -Is 0.0 -Id 1.0 -It cbr -Il 590 -If 0 -Ii 12 -Iv 30 -Pn cbr -Pi 6 -Pf 0 -Po 0 
r -t 1.605714000 -Hs 1 -Hd 1 -Ni 1 -Nx 300.00 -Ny 100.00 -Nz 100.00 -Ne -1.000000 -Nl MAC -Nw --- -Ma 13a -Md 1 -Ms 0 -Mt 800 -Is 0.0 -Id 1.0 -It cbr -Il 532 -If 0 -Ii 12 -Iv 30 -Pn cbr -Pi 6 -Pf 1 -Po 0 
s -t 1.605724000 -Hs 1 -Hd -2 -Ni 1 -Nx 300.00 -Ny 100.00 -Nz 100.00 -Ne -1.000000 -Nl MAC -Nw --- -Ma 0 -Md 0 -Ms 0 -Mt 0 
r -t 1.605739000 -Hs 1 -Hd 1 -Ni 1 -Nx 300.00 -Ny 100.00 -Nz 100.00 -Ne -1.000000 -Nl AGT -Nw --- -Ma 13a -Md 1 -Ms 0 -Mt 800 -Is 0.0 -Id 1.0 -It cbr -Il 532 -If 0 -Ii 12 -Iv 30 -Pn cbr -Pi 6 -Pf 1 -Po 0 
r -t 1.606029000 -Hs 0 -Hd -2 -Ni 0 -Nx 0.00 -Ny 100.00 -Nz 100.00 -Ne -1.000000 -Nl MAC -Nw --- -Ma 0 -Md 0 -Ms 0 -Mt 0 
s -t 1.700000000 -Hs 0 -Hd -2 -Ni 0 -Nx 0.00 -Ny 100.00 -Nz 100.00 -Ne -1.000000 -Nl AGT -Nw --- -Ma 0 -Md 0 -Ms 0 -Mt 0 -Is 0.0 -Id 1.0 -It cbr -Il 512 -If 0 -Ii 14 -Iv 32 -Pn cbr -Pi 7 -Pf 0 -Po 0 
r -t 1.700000000 -Hs 0 -Hd -2 -Ni 0 -Nx 0.00 -Ny 100.00 -Nz 100.00 -Ne -1.000000 -Nl RTR -Nw --- -Ma 0 -Md 0 -Ms 0 -Mt 0 -Is 0.0 -Id 1.0 -It cbr -Il 512 -If 0 -Ii 14 -Iv 32 -Pn cbr -Pi 7 -Pf 0 -Po 0 
s -t 1.700000000 -Hs 2 -Hd -2 -Ni 2 -Nx 300.00 -Ny 800.00 -Nz 100.00 -Ne -1.000000 -Nl AGT -Nw --- -Ma 0 -Md 0 -Ms 0 -Mt 0 -Is 2.0 -Id 1.1 -It cbr -Il 512 -If 0 -Ii 15 -Iv 32 -Pn cbr -Pi 7 -Pf 0 -Po 0 
r -t 1.700000000 -Hs 2 -Hd -2 -Ni 2 -Nx 300.00 -Ny 800.00 -Nz 100.00 -Ne -1.000000 -Nl RTR -Nw --- -Ma 0 -Md 0 -Ms 0 -Mt 0 -Is 2.0 -Id 1.1 -It cbr -Il 512 -If 0 -Ii 15 -Iv 32 -Pn cbr -Pi 7 -Pf 0 -Po 0 
s -t 1.700000000 -Hs 0 -Hd 1 -Ni 0 -Nx 0.00 -Ny 100.00 -Nz 100.00 -Ne -1.000000 -Nl RTR -Nw --- -Ma 0 -Md 0 -Ms 0 -Mt 0 -Is 0.0 -Id 1.0 -It cbr -Il 532 -If 0 -Ii 14 -Iv 30 -Pn cbr -Pi 7 -Pf 0 -Po 0 
s -t 1.700255000 -Hs 0 -Hd -2 -Ni 0 -Nx 0.00 -Ny 100.00 -Nz 100.00 -Ne -1.000000 -Nl MAC -Nw --- -Ma 14ee -Md 1 -Ms 0 -Mt 0 
r -t 1.700608000 -Hs 1 -Hd -2 -Ni 1 -Nx 300.00 -Ny 100.00 -Nz 100.00 -Ne -1.000000 -Nl MAC -Nw --- -Ma 14ee -Md 1 -Ms 0 -Mt 0 
s -t 1.700618000 -Hs 1 -Hd -2 -Ni 1 -Nx 300.00 -Ny 100.00 -Nz 100.00 -Ne -1.000000 -Nl MAC -Nw --- -Ma 13b4 -Md 0 -Ms 0 -Mt 0 
r -t 1.700923000 -Hs 0 -Hd -2 -Ni 0 -Nx 0.00 -Ny 100.00 -Nz 100.00 -Ne -1.000000 -Nl MAC -Nw --- -Ma 13b4 -Md 0 -Ms 0 -Mt 0 
s -t 1.700933000 -Hs 0 -Hd 1 -Ni 0 -Nx 0.00 -Ny 100.00 -Nz 100.00 -Ne -1.000000 -Nl MAC -Nw --- -Ma 13a -Md 1 -Ms 0 -Mt 800 -Is 0.0 -Id 1.0 -It cbr -Il 590 -If 0 -Ii 14 -Iv 30 -Pn cbr -Pi 7 -Pf 0 -Po 0 
r -t 1.705654000 -Hs 1 -Hd 1 -Ni 1 -Nx 300.00 -Ny 100.00 -Nz 100.00 -Ne -1.000000 -Nl MAC -Nw --- -Ma 13a -Md 1 -Ms 0 -Mt 800 -Is 0.0 -Id 1.0 -It cbr -Il 532 -If 0 -Ii 14 -Iv 30 -Pn cbr -Pi 7 -Pf 1 -Po 0 
s -t 1.705664000 -Hs 1 -Hd -2 -Ni 1 -Nx 300.00 -Ny 100.00 -Nz 100.00 -Ne -1.000000 -Nl MAC -Nw --- -Ma 0 -Md 0 -Ms 0 -Mt 0 
r -t 1.705679000 -Hs 1 -Hd 1 -Ni 1 -Nx 300.00 -Ny 100.00 -Nz 100.00 -Ne -1.000000 -Nl AGT -Nw --- -Ma 13a -Md 1 -Ms 0 -Mt 800 -Is 0.0 -Id 1.0 -It cbr -Il 532 -If 0 -Ii 14 -Iv 30 -Pn cbr -Pi 7 -Pf 1 -Po 0 
r -t 1.705969000 -Hs 0 -Hd -2 -Ni 0 -Nx 0.00 -Ny 100.00 -Nz 100.00 -Ne -1.000000 -Nl MAC -Nw --- -Ma 0 -Md 0 -Ms 0 -Mt 0 
s -t 1.800000000 -Hs 0 -Hd -2 -Ni 0 -Nx 0.00 -Ny 100.00 -Nz 100.00 -Ne -1.000000 -Nl AGT -Nw --- -Ma 0 -Md 0 -Ms 0 -Mt 0 -Is 0.0 -Id 1.0 -It cbr -Il 512 -If 0 -Ii 16 -Iv 32 -Pn cbr -Pi 8 -Pf 0 -Po 0 
r -t 1.800000000 -Hs 0 -Hd -2 -Ni 0 -Nx 0.00 -Ny 100.00 -Nz 100.00 -Ne -1.000000 -Nl RTR -Nw --- -Ma 0 -Md 0 -Ms 0 -Mt 0 -Is 0.0 -Id 1.0 -It cbr -Il 512 -If 0 -Ii 16 -Iv 32 -Pn cbr -Pi 8 -Pf 0 -Po 0 
s -t 1.800000000 -Hs 2 -Hd -2 -Ni 2 -Nx 300.00 -Ny 800.00 -Nz 100.00 -Ne -1.000000 -Nl AGT -Nw --- -Ma 0 -Md 0 -Ms 0 -Mt 0 -Is 2.0 -Id 1.1 -It cbr -Il 512 -If 0 -Ii 17 -Iv 32 -Pn cbr -Pi 8 -Pf 0 -Po 0 
r -t 1.800000000 -Hs 2 -Hd -2 -Ni 2 -Nx 300.00 -Ny 800.00 -Nz 100.00 -Ne -1.000000 -Nl RTR -Nw --- -Ma 0 -Md 0 -Ms 0 -Mt 0 -Is 2.0 -Id 1.1 -It cbr -Il 512 -If 0 -Ii 17 -Iv 32 -Pn cbr -Pi 8 -Pf 0 -Po 0 
s -t 1.800000000 -Hs 0 -Hd 1 -Ni 0 -Nx 0.00 -Ny 100.00 -Nz 100.00 -Ne -1.000000 -Nl RTR -Nw --- -Ma 0 -Md 0 -Ms 0 -Mt 0 -Is 0.0 -Id 1.0 -It cbr -Il 532 -If 0 -Ii 16 -Iv 30 -Pn cbr -Pi 8 -Pf 0 -Po 0 
s -t 1.800475000 -Hs 0 -Hd -2 -Ni 0 -Nx 0.00 -Ny 100.00 -Nz 100.00 -Ne -1.000000 -Nl MAC -Nw --- -Ma 14ee -Md 1 -Ms 0 -Mt 0 
r -t 1.800828000 -Hs 1 -Hd -2 -Ni 1 -Nx 300.00 -Ny 100.00 -Nz 100.00 -Ne -1.000000 -Nl MAC -Nw --- -Ma 14ee -Md 1 -Ms 0 -Mt 0 
s -t 1.800838000 -Hs 1 -Hd -2 -Ni 1 -Nx 300.00 -Ny 100.00 -Nz 100.00 -Ne -1.000000 -Nl MAC -Nw --- -Ma 13b4 -Md 0 -Ms 0 -Mt 0 
r -t 1.801143000 -Hs 0 -Hd -2 -Ni 0 -Nx 0.00 -Ny 100.00 -Nz 100.00 -Ne -1.000000 -Nl MAC -Nw --- -Ma 13b4 -Md 0 -Ms 0 -Mt 0 
s -t 1.801153000 -Hs 0 -Hd 1 -Ni 0 -Nx 0.00 -Ny 100.00 -Nz 100.00 -Ne -1.000000 -Nl MAC -Nw --- -Ma 13a -Md 1 -Ms 0 -Mt 800 -Is 0.0 -Id 1.0 -It cbr -Il 590 -If 0 -Ii 16 -Iv 30 -Pn cbr -Pi 8 -Pf 0 -Po 0 
r -t 1.805874000 -Hs 1 -Hd 1 -Ni 1 -Nx 300.00 -Ny 100.00 -Nz 100.00 -Ne -1.000000 -Nl MAC -Nw --- -Ma 13a -Md 1 -Ms 0 -Mt 800 -Is 0.0 -Id 1.0 -It cbr -Il 532 -If 0 -Ii 16 -Iv 30 -Pn cbr -Pi 8 -Pf 1 -Po 0 
s -t 1.805884000 -Hs 1 -Hd -2 -Ni 1 -Nx 300.00 -Ny 100.00 -Nz 100.00 -Ne -1.000000 -Nl MAC -Nw --- -Ma 0 -Md 0 -Ms 0 -Mt 0 
r -t 1.805899000 -Hs 1 -Hd 1 -Ni 1 -Nx 300.00 -Ny 100.00 -Nz 100.00 -Ne -1.000000 -Nl AGT -Nw --- -Ma 13a -Md 1 -Ms 0 -Mt 800 -Is 0.0 -Id 1.0 -It cbr -Il 532 -If 0 -Ii 16 -Iv 30 -Pn cbr -Pi 8 -Pf 1 -Po 0 
r -t 1.806189000 -Hs 0 -Hd -2 -Ni 0 -Nx 0.00 -Ny 100.00 -Nz 100.00 -Ne -1.000000 -Nl MAC -Nw --- -Ma 0 -Md 0 -Ms 0 -Mt 0 
s -t 1.900000000 -Hs 0 -Hd -2 -Ni 0 -Nx 0.00 -Ny 100.00 -Nz 100.00 -Ne -1.000000 -Nl AGT -Nw --- -Ma 0 -Md 0 -Ms 0 -Mt 0 -Is 0.0 -Id 1.0 -It cbr -Il 512 -If 0 -Ii 18 -Iv 32 -Pn cbr -Pi 9 -Pf 0 -Po 0 
r -t 1.900000000 -Hs 0 -Hd -2 -Ni 0 -Nx 0.00 -Ny 100.00 -Nz 100.00 -Ne -1.000000 -Nl RTR -Nw --- -Ma 0 -Md 0 -Ms 0 -Mt 0 -Is 0.0 -Id 1.0 -It cbr -Il 512 -If 0 -Ii 18 -Iv 32 -Pn cbr -Pi 9 -Pf 0 -Po 0 
s -t 1.900000000 -Hs 2 -Hd -2 -Ni 2 -Nx 300.00 -Ny 800.00 -Nz 100.00 -Ne -1.000000 -Nl AGT -Nw --- -Ma 0 -Md 0 -Ms 0 -Mt 0 -Is 2.0 -Id 1.1 -It cbr -Il 512 -If 0 -Ii 19 -Iv 32 -Pn cbr -Pi 9 -Pf 0 -Po 0 
r -t 1.900000000 -Hs 2 -Hd -2 -Ni 2 -Nx 300.00 -Ny 800.00 -Nz 100.00 -Ne -1.000000 -Nl RTR -Nw --- -Ma 0 -Md 0 -Ms 0 -Mt 0 -Is 2.0 -Id 1.1 -It cbr -Il 512 -If 0 -Ii 19 -Iv 32 -Pn cbr -Pi 9 -Pf 0 -Po 0 
s -t 1.900000000 -Hs 0 -Hd 1 -Ni 0 -Nx 0.00 -Ny 100.00 -Nz 100.00 -Ne -1.000000 -Nl RTR -Nw --- -Ma 0 -Md 0 -Ms 0 -Mt 0 -Is 0.0 -Id 1.0 -It cbr -Il 532 -If 0 -Ii 18 -Iv 30 -Pn cbr -Pi 9 -Pf 0 -Po 0 
s -t 1.900435000 -Hs 0 -Hd -2 -Ni 0 -Nx 0.00 -Ny 100.00 -Nz 100.00 -Ne -1.000000 -Nl MAC -Nw --- -Ma 14ee -Md 1 -Ms 0 -Mt 0 
r -t 1.900788000 -Hs 1 -Hd -2 -Ni 1 -Nx 300.00 -Ny 100.00 -Nz 100.00 -Ne -1.000000 -Nl MAC -Nw --- -Ma 14ee -Md 1 -Ms 0 -Mt 0 
s -t 1.900798000 -Hs 1 -Hd -2 -Ni 1 -Nx 300.00 -Ny 100.00 -Nz 100.00 -Ne -1.000000 -Nl MAC -Nw --- -Ma 13b4 -Md 0 -Ms 0 -Mt 0 
r -t 1.901103000 -Hs 0 -Hd -2 -Ni 0 -Nx 0.00 -Ny 100.00 -Nz 100.00 -Ne -1.000000 -Nl MAC -Nw --- -Ma 13b4 -Md 0 -Ms 0 -Mt 0 
s -t 1.901113000 -Hs 0 -Hd 1 -Ni 0 -Nx 0.00 -Ny 100.00 -Nz 100.00 -Ne -1.000000 -Nl MAC -Nw --- -Ma 13a -Md 1 -Ms 0 -Mt 800 -Is 0.0 -Id 1.0 -It cbr -Il 590 -If 0 -Ii 18 -Iv 30 -Pn cbr -Pi 9 -Pf 0 -Po 0 
r -t 1.905834000 -Hs 1 -Hd 1 -Ni 1 -Nx 300.00 -Ny 100.00 -Nz 100.00 -Ne -1.000000 -Nl MAC -Nw --- -Ma 13a -Md 1 -Ms 0 -Mt 800 -Is 0.0 -Id 1.0 -It cbr -Il 532 -If 0 -Ii 18 -Iv 30 -Pn cbr -Pi 9 -Pf 1 -Po 0 
s -t 1.905844000 -Hs 1 -Hd -2 -Ni 1 -Nx 300.00 -Ny 100.00 -Nz 100.00 -Ne -1.000000 -Nl MAC -Nw --- -Ma 0 -Md 0 -Ms 0 -Mt 0 
r -t 1.905859000 -Hs 1 -Hd 1 -Ni 1 -Nx 300.00 -Ny 100.00 -Nz 100.00 -Ne -1.000000 -Nl AGT -Nw --- -Ma 13a -Md 1 -Ms 0 -Mt 800 -Is 0.0 -Id 1.0 -It cbr -Il 532 -If 0 -Ii 18 -Iv 30 -Pn cbr -Pi 9 -Pf 1 -Po 0 
r -t 1.906149000 -Hs 0 -Hd -2 -Ni 0 -Nx 0.00 -Ny 100.00 -Nz 100.00 -Ne -1.000000 -Nl MAC -Nw --- -Ma 0 -Md 0 -Ms 0 -Mt 0 
s -t 2.000000000 -Hs 0 -Hd -2 -Ni 0 -Nx 0.00 -Ny 100.00 -Nz 100.00 -Ne -1.000000 -Nl AGT -Nw --- -Ma 0 -Md 0 -Ms 0 -Mt 0 -Is 0.0 -Id 1.0 -It cbr -Il 512 -If 0 -Ii 20 -Iv 32 -Pn cbr -Pi 10 -Pf 0 -Po 0 